5
Properties=species:S:1:pos:R:3:forces:R:3 t=570.0 3=T energy=0.13825451852486145 pbc="F F F"
O       -0.76773458      -0.13787344      -0.60943256      -3.15690967      -1.09885212      -1.63887113
C        0.36251119       0.25745881      -0.11867332       4.20657168       1.52205407      -1.67074439
H        0.58706874       0.32176639       0.89246271      -0.01499955      -0.02904421       1.44622683
H        1.15582872       0.55305548      -0.90203403      -1.78160728      -0.66027904       1.61823158
H       -1.47751507      -0.40986853      -0.01156074       0.74694482       0.26612131       0.24515710